Program Version,EnergyPlus, Version 8.7.0-78a111df4a, YMD=2018.10.04 19:30
1,5,Environment Title[],Latitude[deg],Longitude[deg],Time Zone[],Elevation[m]
2,6,Day of Simulation[],Month[],Day of Month[],DST Indicator[1=yes 0=no],Hour[],StartMinute[],EndMinute[],DayType
3,3,Cumulative Day of Simulation[],Month[],Day of Month[],DST Indicator[1=yes 0=no],DayType  ! When Daily Report Variables Requested
4,2,Cumulative Days of Simulation[],Month[]  ! When Monthly Report Variables Requested
5,1,Cumulative Days of Simulation[] ! When Run Period Report Variables Requested
6,1,Environment,Site Outdoor Air Drybulb Temperature [C] !TimeStep
7,1,Environment,Site Outdoor Air Wetbulb Temperature [C] !TimeStep
8,1,SPACE2-1,Zone Total Internal Radiant Heating Rate [W] !TimeStep
9,1,SPACE2-1,Zone People Occupant Count [] !TimeStep
295,1,SPACE2-1,Zone Infiltration Air Change Rate [ach] !TimeStep
432,1,SPACE2-1,Zone Air System Sensible Heating Rate [W] !TimeStep
433,1,SPACE2-1,Zone Air System Sensible Cooling Rate [W] !TimeStep
434,1,SPACE2-1,Zone Air Temperature [C] !TimeStep
435,1,SPACE2-1,Zone Thermostat Cooling Setpoint Temperature [C] !TimeStep
636,1,MAIN COOLING COIL 1,Cooling Coil Total Cooling Rate [W] !TimeStep
637,1,MAIN COOLING COIL 1,Cooling Coil Sensible Cooling Rate [W] !TimeStep
895,1,SPACE2-1 PEOPLE 1,Zone Thermal Comfort Fanger Model PMV [] !TimeStep
896,1,SPACE2-1 PEOPLE 1,Zone Thermal Comfort Mean Radiant Temperature [C] !TimeStep
897,1,SPACE2-1 PEOPLE 1,Zone Thermal Comfort Clothing Value [clo] !TimeStep
898,1,CLG-SETP-SCH,Schedule Value [] !TimeStep
899,1,AIRCOOLING-FAN,Schedule Value [] !TimeStep
900,1,AIR VELOCITY-FAN,Schedule Value [] !TimeStep
901,1,FANAVAILSCHED,Schedule Value [] !TimeStep
11,1,Electricity:Facility [J] !TimeStep
639,1,Electricity:HVAC [J] !TimeStep
21,1,Electricity:Building [J] !TimeStep
232,1,Fans:Electricity [J] !TimeStep
925,1,SPACE2-1,Zone Mechanical Ventilation Mass Flow Rate [kg/s] !TimeStep
926,1,SPACE2-1,Zone Mechanical Ventilation Air Changes per Hour [ach] !TimeStep
End of Data Dictionary
1,Shanghai Shanghai CHN CSWD WMO#=583620,  31.40, 121.45,   8.00,   5.50
2,1, 7,14, 0, 1, 0.00, 5.00,Monday
6,28.191666666666664
7,26.001613273636225
8,14.0821425
9,0.0
435,40.0
895,2.122105390323495
896,29.17738954404863
897,0.7499999951999999
898,40.0
899,0.0
900,0.0
901,0.0
295,0.0
432,3.84615
433,0.0
434,29.282818222408119
636,0.0
637,0.0
925,0.0
926,0.0
11,138009.225
21,138009.225
232,0.0
639,0.0
2,1, 7,14, 0, 1, 5.00,10.00,Monday
6,27.983333333333336
7,25.8385639574166
8,14.0821425
9,0.0
435,40.0
895,2.113969398168262
896,29.150852660376026
897,0.7499999951999999
898,40.0
899,0.0
900,0.0
901,0.0
295,0.0
432,3.84615
433,0.0
434,29.257251919395484
636,0.0
637,0.0
925,0.0
926,0.0
11,138009.225
21,138009.225
232,0.0
639,0.0
2,1, 7,14, 0, 1,10.00,15.00,Monday
6,27.775
7,25.675144640486317
8,14.0821425
9,0.0
435,40.0
895,2.105907450523228
896,29.124695097229404
897,0.7499999951999999
898,40.0
899,0.0
900,0.0
901,0.0
295,0.0
432,3.84615
433,0.0
434,29.231568098939986
636,0.0
637,0.0
925,0.0
926,0.0
11,138009.225
21,138009.225
232,0.0
639,0.0
2,1, 7,14, 0, 1,15.00,20.00,Monday
6,27.566666666666668
7,25.511379801771605
8,14.0821425
9,0.0
435,40.0
895,2.0978703769192168
896,29.09887952299588
897,0.7499999951999999
898,40.0
899,0.0
900,0.0
901,0.0
295,0.0
432,3.84615
433,0.0
434,29.205780585606264
636,0.0
637,0.0
925,0.0
926,0.0
11,138009.225
21,138009.225
232,0.0
639,0.0
2,1, 7,14, 0, 1,20.00,25.00,Monday
6,27.358333333333328
7,25.347267437958
8,14.0821425
9,0.0
435,40.0
895,2.0898572871722629
896,29.073380584900275
897,0.7499999951999999
898,40.0
899,0.0
900,0.0
901,0.0
295,0.0
432,3.84615
433,0.0
434,29.179994590575928
636,0.0
637,0.0
925,0.0
926,0.0
11,138009.225
21,138009.225
232,0.0
639,0.0
2,1, 7,14, 0, 1,25.00,30.00,Monday
6,27.15
7,25.182800518525334
8,14.0821425
9,0.0
435,40.0
895,2.0819017080252557
896,29.048309341010758
897,0.7499999951999999
898,40.0
899,0.0
900,0.0
901,0.0
295,0.0
432,3.84615
433,0.0
434,29.154342834836699
636,0.0
637,0.0
925,0.0
926,0.0
11,138009.225
21,138009.225
232,0.0
639,0.0
2,1, 7,14, 0, 1,30.00,35.00,Monday
6,26.941666666666668
7,25.01798533143485
8,14.0821425
9,0.0
435,40.0
895,2.0754224275892918
896,29.023498489417326
897,0.7499999951999999
898,40.0
899,0.0
900,0.0
901,0.0
295,0.0
432,3.84615
433,0.0
434,29.128888381707804
636,0.0
637,0.0
925,0.0
926,0.0
11,138009.225
21,138009.225
232,0.0
639,0.0
2,1, 7,14, 0, 1,35.00,40.00,Monday
6,26.733333333333336
7,24.852821158363424
8,14.0821425
9,0.0
435,40.0
895,2.067624258273682
896,28.998877739513245
897,0.7499999951999999
898,40.0
899,0.0
900,0.0
901,0.0
295,0.0
432,3.84615
433,0.0
434,29.103607701254189
636,0.0
637,0.0
925,0.0
926,0.0
11,138009.225
21,138009.225
232,0.0
639,0.0
2,1, 7,14, 0, 1,40.00,45.00,Monday
6,26.525
7,24.68730888693277
8,14.0821425
9,0.0
435,40.0
895,2.0598863446202695
896,28.974474311215098
897,0.7499999951999999
898,40.0
899,0.0
900,0.0
901,0.0
295,0.0
432,3.84615
433,0.0
434,29.07846088477095
636,0.0
637,0.0
925,0.0
926,0.0
11,138009.225
21,138009.225
232,0.0
639,0.0
2,1, 7,14, 0, 1,45.00,50.00,Monday
6,26.316666666666664
7,24.521446218969229
8,14.0821425
9,0.0
435,40.0
895,2.052201609403126
896,28.950287531703503
897,0.7499999951999999
898,40.0
899,0.0
900,0.0
901,0.0
295,0.0
432,3.84615
433,0.0
434,29.053423463434279
636,0.0
637,0.0
925,0.0
926,0.0
11,138009.225
21,138009.225
232,0.0
639,0.0
2,1, 7,14, 0, 1,50.00,55.00,Monday
6,26.10833333333333
7,24.3552419264464
8,14.0821425
9,0.0
435,40.0
895,2.0445642733444555
896,28.926307118167398
897,0.7499999951999999
898,40.0
899,0.0
900,0.0
901,0.0
295,0.0
432,3.84615
433,0.0
434,29.02848551006658
636,0.0
637,0.0
925,0.0
926,0.0
11,138009.225
21,138009.225
232,0.0
639,0.0
2,1, 7,14, 0, 1,55.00,60.00,Monday
6,25.9
7,24.18868691643404
8,14.0821425
9,0.0
435,40.0
895,2.036970810106315
896,28.902519453434658
897,0.7499999951999999
898,40.0
899,0.0
900,0.0
901,0.0
295,0.0
432,3.84615
433,0.0
434,29.003641653348557
636,0.0
637,0.0
925,0.0
926,0.0
11,138009.225
21,138009.225
232,0.0
639,0.0
2,1, 7,14, 0, 2, 0.00, 5.00,Monday
6,25.874999999999998
7,24.187244215124129
8,14.0821425
9,0.0
435,40.0
895,2.0295530149874887
896,28.879911194569595
897,0.7499999951999999
898,40.0
899,0.0
900,0.0
901,0.0
295,0.0
432,3.84615
433,0.0
434,28.979223932422529
636,0.0
637,0.0
925,0.0
926,0.0
11,138009.225
21,138009.225
232,0.0
639,0.0
2,1, 7,14, 0, 2, 5.00,10.00,Monday
6,25.849999999999999
7,24.185773443273477
8,14.0821425
9,0.0
435,40.0
895,2.022240822980962
896,28.857528375945987
897,0.7499999951999999
898,40.0
899,0.0
900,0.0
901,0.0
295,0.0
432,3.84615
433,0.0
434,28.95553423349621
636,0.0
637,0.0
925,0.0
926,0.0
11,138009.225
21,138009.225
232,0.0
639,0.0
2,1, 7,14, 0, 2,10.00,15.00,Monday
6,25.824999999999997
7,24.184257940330224
8,14.0821425
9,0.0
435,40.0
895,2.015166531096404
896,28.835958862275878
897,0.7499999951999999
898,40.0
899,0.0
900,0.0
901,0.0
295,0.0
432,3.84615
433,0.0
434,28.932668213950718
636,0.0
637,0.0
925,0.0
926,0.0
11,138009.225
21,138009.225
232,0.0
639,0.0
2,1, 7,14, 0, 2,15.00,20.00,Monday
6,25.800000000000006
7,24.1826825488314
8,14.0821425
9,0.0
435,40.0
895,2.0082913724984405
896,28.814789711522257
897,0.7499999951999999
898,40.0
899,0.0
900,0.0
901,0.0
295,0.0
432,3.84615
433,0.0
434,28.910534401169888
636,0.0
637,0.0
925,0.0
926,0.0
11,138009.225
21,138009.225
232,0.0
639,0.0
2,1, 7,14, 0, 2,20.00,25.00,Monday
6,25.775
7,24.181073761556755
8,14.0821425
9,0.0
435,40.0
895,2.0015199280579898
896,28.7934300807005
897,0.7499999951999999
898,40.0
899,0.0
900,0.0
901,0.0
295,0.0
432,3.84615
433,0.0
434,28.88896404700428
636,0.0
637,0.0
925,0.0
926,0.0
11,138009.225
21,138009.225
232,0.0
639,0.0
2,1, 7,14, 0, 2,25.00,30.00,Monday
6,25.75
7,24.179418485514085
8,14.0821425
9,0.0
435,40.0
895,1.9949512605131284
896,28.77283803704367
897,0.7499999951999999
898,40.0
899,0.0
900,0.0
901,0.0
295,0.0
432,3.84615
433,0.0
434,28.867874685874307
636,0.0
637,0.0
925,0.0
926,0.0
11,138009.225
21,138009.225
232,0.0
639,0.0
2,1, 7,14, 0, 2,30.00,35.00,Monday
6,25.725
7,24.177721471580595
8,14.0821425
9,0.0
435,40.0
895,1.9885206002883747
896,28.75264010707117
897,0.7499999951999999
898,40.0
899,0.0
900,0.0
901,0.0
295,0.0
432,3.84615
433,0.0
434,28.847210479671419
636,0.0
637,0.0
925,0.0
926,0.0
11,138009.225
21,138009.225
232,0.0
639,0.0
2,1, 7,14, 0, 2,35.00,40.00,Monday
6,25.700000000000004
7,24.175972890470374
8,14.0821425
9,0.0
435,40.0
895,1.9821352807724675
896,28.732218979924768
897,0.7499999951999999
898,40.0
899,0.0
900,0.0
901,0.0
295,0.0
432,3.84615
433,0.0
434,28.82688962785536
636,0.0
637,0.0
925,0.0
926,0.0
11,138009.225
21,138009.225
232,0.0
639,0.0
2,1, 7,14, 0, 2,40.00,45.00,Monday
6,25.675000000000006
7,24.174183335651557
8,14.0821425
9,0.0
435,40.0
895,1.9759144339575959
896,28.712569746448126
897,0.7499999951999999
898,40.0
899,0.0
900,0.0
901,0.0
295,0.0
432,3.84615
433,0.0
434,28.80691526336492
636,0.0
637,0.0
925,0.0
926,0.0
11,138009.225
21,138009.225
232,0.0
639,0.0
2,1, 7,14, 0, 2,45.00,50.00,Monday
6,25.650000000000003
7,24.172359696897293
8,14.0821425
9,0.0
435,40.0
895,1.9697882441236705
896,28.693168358867035
897,0.7499999951999999
898,40.0
899,0.0
900,0.0
901,0.0
295,0.0
432,3.84615
433,0.0
434,28.787318365469007
636,0.0
637,0.0
925,0.0
926,0.0
11,138009.225
21,138009.225
232,0.0
639,0.0
2,1, 7,14, 0, 2,50.00,55.00,Monday
6,25.625000000000005
7,24.170480769767523
8,14.0821425
9,0.0
435,40.0
895,1.9637735014015277
896,28.674098692417897
897,0.7499999951999999
898,40.0
899,0.0
900,0.0
901,0.0
295,0.0
432,3.84615
433,0.0
434,28.768084605386059
636,0.0
637,0.0
925,0.0
926,0.0
11,138009.225
21,138009.225
232,0.0
639,0.0
2,1, 7,14, 0, 2,55.00,60.00,Monday
6,25.6
7,24.168560044552444
8,14.0821425
9,0.0
435,40.0
895,1.9578851465909915
896,28.655491968143264
897,0.7499999951999999
898,40.0
899,0.0
900,0.0
901,0.0
295,0.0
432,3.84615
433,0.0
434,28.749152408874747
636,0.0
637,0.0
925,0.0
926,0.0
11,138009.225
21,138009.225
232,0.0
639,0.0
2,1, 7,14, 0, 3, 0.00, 5.00,Monday
6,25.59166666666667
7,24.171618696971323
8,14.0821425
9,0.0
435,40.0
895,1.9520185764078087
896,28.63664834999843
897,0.7499999951999999
898,40.0
899,0.0
900,0.0
901,0.0
295,0.0
432,3.84615
433,0.0
434,28.730435184224349
636,0.0
637,0.0
925,0.0
926,0.0
11,138009.225
21,138009.225
232,0.0
639,0.0
2,1, 7,14, 0, 3, 5.00,10.00,Monday
6,25.583333333333337
7,24.17468341212435
8,14.0821425
9,0.0
435,40.0
895,1.9462980980510652
896,28.61861009816109
897,0.7499999951999999
898,40.0
899,0.0
900,0.0
901,0.0
295,0.0
432,3.84615
433,0.0
434,28.71196204507892
636,0.0
637,0.0
925,0.0
926,0.0
11,138009.225
21,138009.225
232,0.0
639,0.0
2,1, 7,14, 0, 3,10.00,15.00,Monday
6,25.575000000000004
7,24.177730562523935
8,14.0821425
9,0.0
435,40.0
895,1.9406600232912399
896,28.600863063866595
897,0.7499999951999999
898,40.0
899,0.0
900,0.0
901,0.0
295,0.0
432,3.84615
433,0.0
434,28.693799965907066
636,0.0
637,0.0
925,0.0
926,0.0
11,138009.225
21,138009.225
232,0.0
639,0.0
2,1, 7,14, 0, 3,15.00,20.00,Monday
6,25.56666666666667
7,24.180767205539288
8,14.0821425
9,0.0
435,40.0
895,1.9351219934199944
896,28.583451653265919
897,0.7499999951999999
898,40.0
899,0.0
900,0.0
901,0.0
295,0.0
432,3.84615
433,0.0
434,28.675978480123125
636,0.0
637,0.0
925,0.0
926,0.0
11,138009.225
21,138009.225
232,0.0
639,0.0
2,1, 7,14, 0, 3,20.00,25.00,Monday
6,25.55833333333333
7,24.183790795535307
8,14.0821425
9,0.0
435,40.0
895,1.9296868778689199
896,28.56635763475313
897,0.7499999951999999
898,40.0
899,0.0
900,0.0
901,0.0
295,0.0
432,3.84615
433,0.0
434,28.658495377373126
636,0.0
637,0.0
925,0.0
926,0.0
11,138009.225
21,138009.225
232,0.0
639,0.0
2,1, 7,14, 0, 3,25.00,30.00,Monday
6,25.55
7,24.18681765403061
8,14.0821425
9,0.0
435,40.0
895,1.9243536383318012
896,28.549576503202745
897,0.7499999951999999
898,40.0
899,0.0
900,0.0
901,0.0
295,0.0
432,3.84615
433,0.0
434,28.641335762187877
636,0.0
637,0.0
925,0.0
926,0.0
11,138009.225
21,138009.225
232,0.0
639,0.0
2,1, 7,14, 0, 3,30.00,35.00,Monday
6,25.541666666666669
7,24.189825751090969
8,14.0821425
9,0.0
435,40.0
895,1.9191189669926683
896,28.533103427970837
897,0.7499999951999999
898,40.0
899,0.0
900,0.0
901,0.0
295,0.0
432,3.84615
433,0.0
434,28.624484790936628
636,0.0
637,0.0
925,0.0
926,0.0
11,138009.225
21,138009.225
232,0.0
639,0.0
2,1, 7,14, 0, 3,35.00,40.00,Monday
6,25.533333333333336
7,24.19283354440489
8,14.0821425
9,0.0
435,40.0
895,1.9139974969931218
896,28.517067826831
897,0.7499999951999999
898,40.0
899,0.0
900,0.0
901,0.0
295,0.0
432,3.84615
433,0.0
434,28.607947301697906
636,0.0
637,0.0
925,0.0
926,0.0
11,138009.225
21,138009.225
232,0.0
639,0.0
2,1, 7,14, 0, 3,40.00,45.00,Monday
6,25.525
7,24.195831332857368
8,14.0821425
9,0.0
435,40.0
895,1.908958834712464
896,28.501235579796405
897,0.7499999951999999
898,40.0
899,0.0
900,0.0
901,0.0
295,0.0
432,3.84615
433,0.0
434,28.591716388595786
636,0.0
637,0.0
925,0.0
926,0.0
11,138009.225
21,138009.225
232,0.0
639,0.0
2,1, 7,14, 0, 3,45.00,50.00,Monday
6,25.516666666666667
7,24.198809701899785
8,14.0821425
9,0.0
435,40.0
895,1.9040134550876358
896,28.485694178895228
897,0.7499999951999999
898,40.0
899,0.0
900,0.0
901,0.0
295,0.0
432,3.84615
433,0.0
434,28.57577836954418
636,0.0
637,0.0
925,0.0
926,0.0
11,138009.225
21,138009.225
232,0.0
639,0.0
2,1, 7,14, 0, 3,50.00,55.00,Monday
6,25.508333333333334
7,24.201788271190599
8,14.0821425
9,0.0
435,40.0
895,1.899159275905718
896,28.47044647789974
897,0.7499999951999999
898,40.0
899,0.0
900,0.0
901,0.0
295,0.0
432,3.84615
433,0.0
434,28.560124829564985
636,0.0
637,0.0
925,0.0
926,0.0
11,138009.225
21,138009.225
232,0.0
639,0.0
2,1, 7,14, 0, 3,55.00,60.00,Monday
6,25.5
7,24.204756524917298
8,14.0821425
9,0.0
435,40.0
895,1.8943936562449578
896,28.45548399064019
897,0.7499999951999999
898,40.0
899,0.0
900,0.0
901,0.0
295,0.0
432,3.84615
433,0.0
434,28.544751385503529
636,0.0
637,0.0
925,0.0
926,0.0
11,138009.225
21,138009.225
232,0.0
639,0.0
2,1, 7,14, 0, 4, 0.00, 5.00,Monday
6,25.5
7,24.204748905623388
8,14.0821425
9,0.0
435,40.0
895,1.8897151923359086
896,28.440801856768318
897,0.7499999951999999
898,40.0
899,0.0
900,0.0
901,0.0
295,0.0
432,3.84615
433,0.0
434,28.529654872575838
636,0.0
637,0.0
925,0.0
926,0.0
11,138009.225
21,138009.225
232,0.0
639,0.0
2,1, 7,14, 0, 4, 5.00,10.00,Monday
6,25.5
7,24.204756524917298
8,14.0821425
9,0.0
435,40.0
895,1.8851238927076773
896,28.42640467835441
897,0.7499999951999999
898,40.0
899,0.0
900,0.0
901,0.0
295,0.0
432,3.84615
433,0.0
434,28.514835045604206
636,0.0
637,0.0
925,0.0
926,0.0
11,138009.225
21,138009.225
232,0.0
639,0.0
2,1, 7,14, 0, 4,10.00,15.00,Monday
6,25.5
7,24.204756524917298
8,14.0821425
9,0.0
435,40.0
895,1.880619455545396
896,28.412290499568166
897,0.7499999951999999
898,40.0
899,0.0
900,0.0
901,0.0
295,0.0
432,3.84615
433,0.0
434,28.50029394666078
636,0.0
637,0.0
925,0.0
926,0.0
11,138009.225
21,138009.225
232,0.0
639,0.0
2,1, 7,14, 0, 4,15.00,20.00,Monday
6,25.500000000000005
7,24.204756524917298
8,14.0821425
9,0.0
435,40.0
895,1.8762015180331735
896,28.39845363550708
897,0.7499999951999999
898,40.0
899,0.0
900,0.0
901,0.0
295,0.0
432,3.84615
433,0.0
434,28.48603309229959
636,0.0
637,0.0
925,0.0
926,0.0
11,138009.225
21,138009.225
232,0.0
639,0.0
2,1, 7,14, 0, 4,20.00,25.00,Monday
6,25.5
7,24.204756524917298
8,14.0821425
9,0.0
435,40.0
895,1.871869107392163
896,28.384885452613668
897,0.7499999951999999
898,40.0
899,0.0
900,0.0
901,0.0
295,0.0
432,3.84615
433,0.0
434,28.472050968347209
636,0.0
637,0.0
925,0.0
926,0.0
11,138009.225
21,138009.225
232,0.0
639,0.0
2,1, 7,14, 0, 4,25.00,30.00,Monday
6,25.5
7,24.204756524917298
8,14.0821425
9,0.0
435,40.0
895,1.867621726581279
896,28.37158368620925
897,0.7499999951999999
898,40.0
899,0.0
900,0.0
901,0.0
295,0.0
432,3.84615
433,0.0
434,28.458344622365119
636,0.0
637,0.0
925,0.0
926,0.0
11,138009.225
21,138009.225
232,0.0
639,0.0
2,1, 7,14, 0, 4,30.00,35.00,Monday
6,25.5
7,24.204756524917298
8,14.0821425
9,0.0
435,40.0
895,1.8634582961975022
896,28.358544565420929
897,0.7499999951999999
898,40.0
899,0.0
900,0.0
901,0.0
295,0.0
432,3.84615
433,0.0
434,28.44491131778221
636,0.0
637,0.0
925,0.0
926,0.0
11,138009.225
21,138009.225
232,0.0
639,0.0
2,1, 7,14, 0, 4,35.00,40.00,Monday
6,25.5
7,24.204756524917298
8,14.0821425
9,0.0
435,40.0
895,1.8593776129044575
896,28.345762801535117
897,0.7499999951999999
898,40.0
899,0.0
900,0.0
901,0.0
295,0.0
432,3.84615
433,0.0
434,28.43174873377119
636,0.0
637,0.0
925,0.0
926,0.0
11,138009.225
21,138009.225
232,0.0
639,0.0
2,1, 7,14, 0, 4,40.00,45.00,Monday
6,25.5
7,24.204756524917298
8,14.0821425
9,0.0
435,40.0
895,1.8553785286862886
896,28.33323274801335
897,0.7499999951999999
898,40.0
899,0.0
900,0.0
901,0.0
295,0.0
432,3.84615
433,0.0
434,28.418854886307537
636,0.0
637,0.0
925,0.0
926,0.0
11,138009.225
21,138009.225
232,0.0
639,0.0
2,1, 7,14, 0, 4,45.00,50.00,Monday
6,25.5
7,24.204756524917298
8,14.0821425
9,0.0
435,40.0
895,1.8514598524188156
896,28.32094811691688
897,0.7499999951999999
898,40.0
899,0.0
900,0.0
901,0.0
295,0.0
432,3.84615
433,0.0
434,28.40622859506254
636,0.0
637,0.0
925,0.0
926,0.0
11,138009.225
21,138009.225
232,0.0
639,0.0
2,1, 7,14, 0, 4,50.00,55.00,Monday
6,25.5
7,24.204756524917298
8,14.0821425
9,0.0
435,40.0
895,1.8476201118640475
896,28.308899753925635
897,0.7499999951999999
898,40.0
899,0.0
900,0.0
901,0.0
295,0.0
432,3.84615
433,0.0
434,28.393871549739968
636,0.0
637,0.0
925,0.0
926,0.0
11,138009.225
21,138009.225
232,0.0
639,0.0
2,1, 7,14, 0, 4,55.00,60.00,Monday
6,25.5
7,24.204756524917298
8,14.0821425
9,0.0
435,40.0
895,1.8438651837039946
896,28.297129167513945
897,0.7499999951999999
898,40.0
899,0.0
900,0.0
901,0.0
295,0.0
432,3.84615
433,0.0
434,28.381769062135274
636,0.0
637,0.0
925,0.0
926,0.0
11,138009.225
21,138009.225
232,0.0
639,0.0
2,1, 7,14, 0, 5, 0.00, 5.00,Monday
6,25.508333333333334
7,24.201780654906274
8,14.0821425
9,0.0
435,40.0
895,1.8401908786113184
896,28.285625108156486
897,0.7499999951999999
898,40.0
899,0.0
900,0.0
901,0.0
295,0.0
432,3.84615
433,0.0
434,28.369880472802096
636,0.0
637,0.0
925,0.0
926,0.0
11,138009.225
21,138009.225
232,0.0
639,0.0
2,1, 7,14, 0, 5, 5.00,10.00,Monday
6,25.516666666666667
7,24.198809701899785
8,14.0821425
9,0.0
435,40.0
895,1.8365863660927485
896,28.274359751726853
897,0.7499999951999999
898,40.0
899,0.0
900,0.0
901,0.0
295,0.0
432,3.84615
433,0.0
434,28.358184932734028
636,0.0
637,0.0
925,0.0
926,0.0
11,138009.225
21,138009.225
232,0.0
639,0.0
2,1, 7,14, 0, 5,10.00,15.00,Monday
6,25.525
7,24.195831332857368
8,14.0821425
9,0.0
435,40.0
895,1.8330485073916765
896,28.263337404908357
897,0.7499999951999999
898,40.0
899,0.0
900,0.0
901,0.0
295,0.0
432,3.84615
433,0.0
434,28.34668026128935
636,0.0
637,0.0
925,0.0
926,0.0
11,138009.225
21,138009.225
232,0.0
639,0.0
2,1, 7,14, 0, 5,15.00,20.00,Monday
6,25.53333333333334
7,24.19283354440489
8,14.0821425
9,0.0
435,40.0
895,1.8295760546348956
896,28.252552316501025
897,0.7499999951999999
898,40.0
899,0.0
900,0.0
901,0.0
295,0.0
432,3.84615
433,0.0
434,28.33537229161797
636,0.0
637,0.0
925,0.0
926,0.0
11,138009.225
21,138009.225
232,0.0
639,0.0
2,1, 7,14, 0, 5,20.00,25.00,Monday
6,25.541666666666666
7,24.189825751090969
8,14.0821425
9,0.0
435,40.0
895,1.8261693647026836
896,28.241998741081674
897,0.7499999951999999
898,40.0
899,0.0
900,0.0
901,0.0
295,0.0
432,3.84615
433,0.0
434,28.324266747632938
636,0.0
637,0.0
925,0.0
926,0.0
11,138009.225
21,138009.225
232,0.0
639,0.0
2,1, 7,14, 0, 5,25.00,30.00,Monday
6,25.55
7,24.18681765403061
8,14.0821425
9,0.0
435,40.0
895,1.8228286862297947
896,28.231671356837439
897,0.7499999951999999
898,40.0
899,0.0
900,0.0
901,0.0
295,0.0
432,3.84615
433,0.0
434,28.313366380871149
636,0.0
637,0.0
925,0.0
926,0.0
11,138009.225
21,138009.225
232,0.0
639,0.0
2,1, 7,14, 0, 5,30.00,35.00,Monday
6,25.558333333333335
7,24.183790795535307
8,14.0821425
9,0.0
435,40.0
895,1.8195538494200688
896,28.22156522406697
897,0.7499999951999999
898,40.0
899,0.0
900,0.0
901,0.0
295,0.0
432,3.84615
433,0.0
434,28.302671228638759
636,0.0
637,0.0
925,0.0
926,0.0
11,138009.225
21,138009.225
232,0.0
639,0.0
2,1, 7,14, 0, 5,35.00,40.00,Monday
6,25.56666666666667
7,24.180767205539288
8,14.0821425
9,0.0
435,40.0
895,1.8163442318674182
896,28.211675671359147
897,0.7499999951999999
898,40.0
899,0.0
900,0.0
901,0.0
295,0.0
432,3.84615
433,0.0
434,28.292179725946629
636,0.0
637,0.0
925,0.0
926,0.0
11,138009.225
21,138009.225
232,0.0
639,0.0
2,1, 7,14, 0, 5,40.00,45.00,Monday
6,25.575000000000004
7,24.177730562523935
8,14.0821425
9,0.0
435,40.0
895,1.8131989880616469
896,28.201998223210866
897,0.7499999951999999
898,40.0
899,0.0
900,0.0
901,0.0
295,0.0
432,3.84615
433,0.0
434,28.28188958560856
636,0.0
637,0.0
925,0.0
926,0.0
11,138009.225
21,138009.225
232,0.0
639,0.0
2,1, 7,14, 0, 5,45.00,50.00,Monday
6,25.583333333333337
7,24.17468341212435
8,14.0821425
9,0.0
435,40.0
895,1.810117102570191
896,28.19252855927851
897,0.7499999951999999
898,40.0
899,0.0
900,0.0
901,0.0
295,0.0
432,3.84615
433,0.0
434,28.27179824848944
636,0.0
637,0.0
925,0.0
926,0.0
11,138009.225
21,138009.225
232,0.0
639,0.0
2,1, 7,14, 0, 5,50.00,55.00,Monday
6,25.59166666666667
7,24.17162628284753
8,14.0821425
9,0.0
435,40.0
895,1.8070975942526797
896,28.18326248812864
897,0.7499999951999999
898,40.0
899,0.0
900,0.0
901,0.0
295,0.0
432,3.84615
433,0.0
434,28.261903046654166
636,0.0
637,0.0
925,0.0
926,0.0
11,138009.225
21,138009.225
232,0.0
639,0.0
2,1, 7,14, 0, 5,55.00,60.00,Monday
6,25.6
7,24.168560044552444
8,14.0821425
9,0.0
435,40.0
895,1.8041393822158534
896,28.174195927808485
897,0.7499999951999999
898,40.0
899,0.0
900,0.0
901,0.0
295,0.0
432,3.84615
433,0.0
434,28.252201243315495
636,0.0
637,0.0
925,0.0
926,0.0
11,138009.225
21,138009.225
232,0.0
639,0.0
2,1, 7,14, 0, 6, 0.00, 5.00,Monday
6,25.608333333333336
7,24.165476073495939
8,14.0821425
9,0.0
435,40.0
895,1.801692962260565
896,28.168728736049169
897,0.7499999951999999
898,40.0
899,0.0
900,0.0
901,0.0
295,0.0
432,3.84615
433,0.0
434,28.24356258848052
636,0.0
637,0.0
925,0.0
926,0.0
11,138009.225
21,138009.225
232,0.0
639,0.0
2,1, 7,14, 0, 6, 5.00,10.00,Monday
6,25.616666666666668
7,24.162407217845244
8,14.0821425
9,0.0
435,40.0
895,1.7992058476793312
896,28.161533199638208
897,0.7499999951999999
898,40.0
899,0.0
900,0.0
901,0.0
295,0.0
432,3.84615
433,0.0
434,28.235825764604554
636,0.0
637,0.0
925,0.0
926,0.0
11,138009.225
21,138009.225
232,0.0
639,0.0
2,1, 7,14, 0, 6,10.00,15.00,Monday
6,25.625000000000005
7,24.159314937947536
8,14.0821425
9,0.0
435,40.0
895,1.7969526308447062
896,28.15489407276859
897,0.7499999951999999
898,40.0
899,0.0
900,0.0
901,0.0
295,0.0
432,3.84615
433,0.0
434,28.22866112905158
636,0.0
637,0.0
925,0.0
926,0.0
11,138009.225
21,138009.225
232,0.0
639,0.0
2,1, 7,14, 0, 6,15.00,20.00,Monday
6,25.633333333333338
7,24.156219090436119
8,14.0821425
9,0.0
435,40.0
895,1.794852148551942
896,28.148641268476746
897,0.7499999951999999
898,40.0
899,0.0
900,0.0
901,0.0
295,0.0
432,3.84615
433,0.0
434,28.22190204953943
636,0.0
637,0.0
925,0.0
926,0.0
11,138009.225
21,138009.225
232,0.0
639,0.0
2,1, 7,14, 0, 6,20.00,25.00,Monday
6,25.641666666666667
7,24.153103572427967
8,14.0821425
9,0.0
435,40.0
895,1.7929837746125768
896,28.143595989008966
897,0.7499999951999999
898,40.0
899,0.0
900,0.0
901,0.0
295,0.0
432,3.84615
433,0.0
434,28.21579589643202
636,0.0
637,0.0
925,0.0
926,0.0
11,138009.225
21,138009.225
232,0.0
639,0.0
2,1, 7,14, 0, 6,25.00,30.00,Monday
6,25.65
7,24.149987871421467
8,14.0821425
9,0.0
435,40.0
895,1.791133580668908
896,28.137813844536347
897,0.7499999951999999
898,40.0
899,0.0
900,0.0
901,0.0
295,0.0
432,3.84615
433,0.0
434,28.21010404384322
636,0.0
637,0.0
925,0.0
926,0.0
11,138009.225
21,138009.225
232,0.0
639,0.0
2,1, 7,14, 0, 6,30.00,35.00,Monday
6,25.65833333333333
7,24.14686200022
8,14.0821425
9,0.0
435,40.0
895,1.7894060972855553
896,28.132402280393305
897,0.7499999951999999
898,40.0
899,0.0
900,0.0
901,0.0
295,0.0
432,3.84615
433,0.0
434,28.204642053839416
636,0.0
637,0.0
925,0.0
926,0.0
11,138009.225
21,138009.225
232,0.0
639,0.0
2,1, 7,14, 0, 6,35.00,40.00,Monday
6,25.666666666666669
7,24.143726487043414
8,14.0821425
9,0.0
435,40.0
895,1.7879310313389705
896,28.128587782219367
897,0.7499999951999999
898,40.0
899,0.0
900,0.0
901,0.0
295,0.0
432,3.84615
433,0.0
434,28.19977371545513
636,0.0
637,0.0
925,0.0
926,0.0
11,138009.225
21,138009.225
232,0.0
639,0.0
2,1, 7,14, 0, 6,40.00,45.00,Monday
6,25.674999999999998
7,24.14058126361243
8,14.0821425
9,0.0
435,40.0
895,1.7867940342930556
896,28.126529201578017
897,0.7499999951999999
898,40.0
899,0.0
900,0.0
901,0.0
295,0.0
432,3.84615
433,0.0
434,28.196128932565299
636,0.0
637,0.0
925,0.0
926,0.0
11,138009.225
21,138009.225
232,0.0
639,0.0
2,1, 7,14, 0, 6,45.00,50.00,Monday
6,25.683333333333335
7,24.13742608516707
8,14.0821425
9,0.0
435,40.0
895,1.7859672551004693
896,28.125172417847009
897,0.7499999951999999
898,40.0
899,0.0
900,0.0
901,0.0
295,0.0
432,3.84615
433,0.0
434,28.193872474201599
636,0.0
637,0.0
925,0.0
926,0.0
11,138009.225
21,138009.225
232,0.0
639,0.0
2,1, 7,14, 0, 6,50.00,55.00,Monday
6,25.691666666666664
7,24.134265531465599
8,14.0821425
9,0.0
435,40.0
895,1.7853287449383442
896,28.12337675777673
897,0.7499999951999999
898,40.0
899,0.0
900,0.0
901,0.0
295,0.0
432,3.84615
433,0.0
434,28.192468157536074
636,0.0
637,0.0
925,0.0
926,0.0
11,138009.225
21,138009.225
232,0.0
639,0.0
2,1, 7,14, 0, 6,55.00,60.00,Monday
6,25.7
7,24.131100126765614
8,14.0821425
9,0.0
435,40.0
895,1.7850451461752113
896,28.123118200877714
897,0.7499999951999999
898,40.0
899,0.0
900,0.0
901,0.0
295,0.0
432,3.84615
433,0.0
434,28.191854393505325
636,0.0
637,0.0
925,0.0
926,0.0
11,138009.225
21,138009.225
232,0.0
639,0.0
2,1, 7,14, 0, 7, 0.00, 5.00,Monday
6,25.71666666666666
7,24.113468992165108
8,14.0821425
9,0.0
435,40.0
895,1.4789012776306539
896,28.123386281693067
897,0.46426933558456126
898,40.0
899,0.0
900,0.0
901,0.0
295,0.0
432,3.84615
433,0.0
434,28.191972720916348
636,0.0
637,0.0
925,0.0
926,0.0
11,138009.225
21,138009.225
232,0.0
639,0.0
2,1, 7,14, 0, 7, 5.00,10.00,Monday
6,25.733333333333336
7,24.095792098263528
8,14.0821425
9,0.0
435,40.0
895,1.4790377291231099
896,28.12416364252712
897,0.46426933558456126
898,40.0
899,0.0
900,0.0
901,0.0
295,0.0
432,3.84615
433,0.0
434,28.192708482495556
636,0.0
637,0.0
925,0.0
926,0.0
11,138009.225
21,138009.225
232,0.0
639,0.0
2,1, 7,14, 0, 7,10.00,15.00,Monday
6,25.75
7,24.078041629009893
8,14.0821425
9,0.0
435,40.0
895,1.4793669876756093
896,28.125482335594194
897,0.46426933558456126
898,40.0
899,0.0
900,0.0
901,0.0
295,0.0
432,3.84615
433,0.0
434,28.193950054899746
636,0.0
637,0.0
925,0.0
926,0.0
11,138009.225
21,138009.225
232,0.0
639,0.0
2,1, 7,14, 0, 7,15.00,20.00,Monday
6,25.76666666666667
7,24.060217114241178
8,14.0821425
9,0.0
435,40.0
895,1.4798673546790882
896,28.1273646012507
897,0.46426933558456126
898,40.0
899,0.0
900,0.0
901,0.0
295,0.0
432,3.84615
433,0.0
434,28.195588530565755
636,0.0
637,0.0
925,0.0
926,0.0
11,138009.225
21,138009.225
232,0.0
639,0.0
2,1, 7,14, 0, 7,20.00,25.00,Monday
6,25.78333333333333
7,24.042330933056904
8,14.0821425
9,0.0
435,40.0
895,1.480521316498499
896,28.129819691495397
897,0.46426933558456126
898,40.0
899,0.0
900,0.0
901,0.0
295,0.0
432,3.84615
433,0.0
434,28.19747000449575
636,0.0
637,0.0
925,0.0
926,0.0
11,138009.225
21,138009.225
232,0.0
639,0.0
2,1, 7,14, 0, 7,25.00,30.00,Monday
6,25.799999999999998
7,24.024364701431563
8,14.0821425
9,0.0
435,40.0
895,1.481281943423334
896,28.1327051099962
897,0.46426933558456126
898,40.0
899,0.0
900,0.0
901,0.0
295,0.0
432,3.84615
433,0.0
434,28.199670836447205
636,0.0
637,0.0
925,0.0
926,0.0
11,138009.225
21,138009.225
232,0.0
639,0.0
2,1, 7,14, 0, 7,30.00,35.00,Monday
6,25.816666666666668
7,24.006341334613578
8,14.0821425
9,0.0
435,40.0
895,1.4823277015736943
896,28.137053132054214
897,0.46426933558456126
898,40.0
899,0.0
900,0.0
901,0.0
295,0.0
432,3.84615
433,0.0
434,28.20259044906984
636,0.0
637,0.0
925,0.0
926,0.0
11,138009.225
21,138009.225
232,0.0
639,0.0
2,1, 7,14, 0, 7,35.00,40.00,Monday
6,25.833333333333337
7,23.988242954503588
8,14.0821425
9,0.0
435,40.0
895,1.4836475540142545
896,28.142401900938496
897,0.46426933558456126
898,40.0
899,0.0
900,0.0
901,0.0
295,0.0
432,3.84615
433,0.0
434,28.20662006472452
636,0.0
637,0.0
925,0.0
926,0.0
11,138009.225
21,138009.225
232,0.0
639,0.0
2,1, 7,14, 0, 7,40.00,45.00,Monday
6,25.849999999999999
7,23.97007322082447
8,14.0821425
9,0.0
435,40.0
895,1.48535982751012
896,28.14910349828354
897,0.46426933558456126
898,40.0
899,0.0
900,0.0
901,0.0
295,0.0
432,3.84615
433,0.0
434,28.212122873574314
636,0.0
637,0.0
925,0.0
926,0.0
11,138009.225
21,138009.225
232,0.0
639,0.0
2,1, 7,14, 0, 7,45.00,50.00,Monday
6,25.866666666666665
7,23.951832364572316
8,14.0821425
9,0.0
435,40.0
895,1.4872851905450218
896,28.155687007638517
897,0.46426933558456126
898,40.0
899,0.0
900,0.0
901,0.0
295,0.0
432,3.84615
433,0.0
434,28.218841217941056
636,0.0
637,0.0
925,0.0
926,0.0
11,138009.225
21,138009.225
232,0.0
639,0.0
2,1, 7,14, 0, 7,50.00,55.00,Monday
6,25.883333333333334
7,23.93352398867404
8,14.0821425
9,0.0
435,40.0
895,1.4895483146343123
896,28.16318076784968
897,0.46426933558456126
898,40.0
899,0.0
900,0.0
901,0.0
295,0.0
432,3.84615
433,0.0
434,28.22658297005387
636,0.0
637,0.0
925,0.0
926,0.0
11,138009.225
21,138009.225
232,0.0
639,0.0
2,1, 7,14, 0, 7,55.00,60.00,Monday
6,25.9
7,23.915140423089185
8,14.0821425
9,0.0
435,40.0
895,1.4921886068574904
896,28.17201832176524
897,0.46426933558456126
898,40.0
899,0.0
900,0.0
901,0.0
295,0.0
432,3.84615
433,0.0
434,28.235504061131669
636,0.0
637,0.0
925,0.0
926,0.0
11,138009.225
21,138009.225
232,0.0
639,0.0
2,1, 7,14, 0, 8, 0.00, 5.00,Monday
6,25.924999999999998
7,23.904651175518614
8,14.0821425
9,0.0
435,40.0
895,1.4951028812715242
896,28.181405959480114
897,0.46426933558456126
898,40.0
899,0.0
900,0.0
901,0.0
295,0.0
432,3.84615
433,0.0
434,28.245581450690247
636,0.0
637,0.0
925,0.0
926,0.0
11,138009.225