Program Version,EnergyPlus, Version 8.7.0-78a111df4a, YMD=2018.10.04 19:30
1,5,Environment Title[],Latitude[deg],Longitude[deg],Time Zone[],Elevation[m]
2,6,Day of Simulation[],Month[],Day of Month[],DST Indicator[1=yes 0=no],Hour[],StartMinute[],EndMinute[],DayType
3,3,Cumulative Day of Simulation[],Month[],Day of Month[],DST Indicator[1=yes 0=no],DayType  ! When Daily Meters Requested
4,2,Cumulative Days of Simulation[],Month[]  ! When Monthly Meters Requested
5,1,Cumulative Days of Simulation[] ! When Run Period Meters Requested
11,1,Electricity:Facility [J] !TimeStep
639,1,Electricity:HVAC [J] !TimeStep
21,1,Electricity:Building [J] !TimeStep
232,1,Fans:Electricity [J] !TimeStep
End of Data Dictionary
1,Shanghai Shanghai CHN CSWD WMO#=583620,  31.40, 121.45,   8.00,   5.50
2,1, 7,14, 0, 1, 0.00, 5.00,Monday
11,138009.225
21,138009.225
232,0.0
639,0.0
2,1, 7,14, 0, 1, 5.00,10.00,Monday
11,138009.225
21,138009.225
232,0.0
639,0.0
2,1, 7,14, 0, 1,10.00,15.00,Monday
11,138009.225
21,138009.225
232,0.0
639,0.0
2,1, 7,14, 0, 1,15.00,20.00,Monday
11,138009.225
21,138009.225
232,0.0
639,0.0
2,1, 7,14, 0, 1,20.00,25.00,Monday
11,138009.225
21,138009.225
232,0.0
639,0.0
2,1, 7,14, 0, 1,25.00,30.00,Monday
11,138009.225
21,138009.225
232,0.0
639,0.0
2,1, 7,14, 0, 1,30.00,35.00,Monday
11,138009.225
21,138009.225
232,0.0
639,0.0
2,1, 7,14, 0, 1,35.00,40.00,Monday
11,138009.225
21,138009.225
232,0.0
639,0.0
2,1, 7,14, 0, 1,40.00,45.00,Monday
11,138009.225
21,138009.225
232,0.0
639,0.0
2,1, 7,14, 0, 1,45.00,50.00,Monday
11,138009.225
21,138009.225
232,0.0
639,0.0
2,1, 7,14, 0, 1,50.00,55.00,Monday
11,138009.225
21,138009.225
232,0.0
639,0.0
2,1, 7,14, 0, 1,55.00,60.00,Monday
11,138009.225
21,138009.225
232,0.0
639,0.0
2,1, 7,14, 0, 2, 0.00, 5.00,Monday
11,138009.225
21,138009.225
232,0.0
639,0.0
2,1, 7,14, 0, 2, 5.00,10.00,Monday
11,138009.225
21,138009.225
232,0.0
639,0.0
2,1, 7,14, 0, 2,10.00,15.00,Monday
11,138009.225
21,138009.225
232,0.0
639,0.0
2,1, 7,14, 0, 2,15.00,20.00,Monday
11,138009.225
21,138009.225
232,0.0
639,0.0
2,1, 7,14, 0, 2,20.00,25.00,Monday
11,138009.225
21,138009.225
232,0.0
639,0.0
2,1, 7,14, 0, 2,25.00,30.00,Monday
11,138009.225
21,138009.225
232,0.0
639,0.0
2,1, 7,14, 0, 2,30.00,35.00,Monday
11,138009.225
21,138009.225
232,0.0
639,0.0
2,1, 7,14, 0, 2,35.00,40.00,Monday
11,138009.225
21,138009.225
232,0.0
639,0.0
2,1, 7,14, 0, 2,40.00,45.00,Monday
11,138009.225
21,138009.225
232,0.0
639,0.0
2,1, 7,14, 0, 2,45.00,50.00,Monday
11,138009.225
21,138009.225
232,0.0
639,0.0
2,1, 7,14, 0, 2,50.00,55.00,Monday
11,138009.225
21,138009.225
232,0.0
639,0.0
2,1, 7,14, 0, 2,55.00,60.00,Monday
11,138009.225
21,138009.225
232,0.0
639,0.0
2,1, 7,14, 0, 3, 0.00, 5.00,Monday
11,138009.225
21,138009.225
232,0.0
639,0.0
2,1, 7,14, 0, 3, 5.00,10.00,Monday
11,138009.225
21,138009.225
232,0.0
639,0.0
2,1, 7,14, 0, 3,10.00,15.00,Monday
11,138009.225
21,138009.225
232,0.0
639,0.0
2,1, 7,14, 0, 3,15.00,20.00,Monday
11,138009.225
21,138009.225
232,0.0
639,0.0
2,1, 7,14, 0, 3,20.00,25.00,Monday
11,138009.225
21,138009.225
232,0.0
639,0.0
2,1, 7,14, 0, 3,25.00,30.00,Monday
11,138009.225
21,138009.225
232,0.0
639,0.0
2,1, 7,14, 0, 3,30.00,35.00,Monday
11,138009.225
21,138009.225
232,0.0
639,0.0
2,1, 7,14, 0, 3,35.00,40.00,Monday
11,138009.225
21,138009.225
232,0.0
639,0.0
2,1, 7,14, 0, 3,40.00,45.00,Monday
11,138009.225
21,138009.225
232,0.0
639,0.0
2,1, 7,14, 0, 3,45.00,50.00,Monday
11,138009.225
21,138009.225
232,0.0
639,0.0
2,1, 7,14, 0, 3,50.00,55.00,Monday
11,138009.225
21,138009.225
232,0.0
639,0.0
2,1, 7,14, 0, 3,55.00,60.00,Monday
11,138009.225
21,138009.225
232,0.0
639,0.0
2,1, 7,14, 0, 4, 0.00, 5.00,Monday
11,138009.225
21,138009.225
232,0.0
639,0.0
2,1, 7,14, 0, 4, 5.00,10.00,Monday
11,138009.225
21,138009.225
232,0.0
639,0.0
2,1, 7,14, 0, 4,10.00,15.00,Monday
11,138009.225
21,138009.225
232,0.0
639,0.0
2,1, 7,14, 0, 4,15.00,20.00,Monday
11,138009.225
21,138009.225
232,0.0
639,0.0
2,1, 7,14, 0, 4,20.00,25.00,Monday
11,138009.225
21,138009.225
232,0.0
639,0.0
2,1, 7,14, 0, 4,25.00,30.00,Monday
11,138009.225
21,138009.225
232,0.0
639,0.0
2,1, 7,14, 0, 4,30.00,35.00,Monday
11,138009.225
21,138009.225
232,0.0
639,0.0
2,1, 7,14, 0, 4,35.00,40.00,Monday
11,138009.225
21,138009.225
232,0.0
639,0.0
2,1, 7,14, 0, 4,40.00,45.00,Monday
11,138009.225
21,138009.225
232,0.0
639,0.0
2,1, 7,14, 0, 4,45.00,50.00,Monday
11,138009.225
21,138009.225
232,0.0
639,0.0
2,1, 7,14, 0, 4,50.00,55.00,Monday
11,138009.225
21,138009.225
232,0.0
639,0.0
2,1, 7,14, 0, 4,55.00,60.00,Monday
11,138009.225
21,138009.225
232,0.0
639,0.0
2,1, 7,14, 0, 5, 0.00, 5.00,Monday
11,138009.225
21,138009.225
232,0.0
639,0.0
2,1, 7,14, 0, 5, 5.00,10.00,Monday
11,138009.225
21,138009.225
232,0.0
639,0.0
2,1, 7,14, 0, 5,10.00,15.00,Monday
11,138009.225
21,138009.225
232,0.0
639,0.0
2,1, 7,14, 0, 5,15.00,20.00,Monday
11,138009.225
21,138009.225
232,0.0
639,0.0
2,1, 7,14, 0, 5,20.00,25.00,Monday
11,138009.225
21,138009.225
232,0.0
639,0.0
2,1, 7,14, 0, 5,25.00,30.00,Monday
11,138009.225
21,138009.225
232,0.0
639,0.0
2,1, 7,14, 0, 5,30.00,35.00,Monday
11,138009.225
21,138009.225
232,0.0
639,0.0
2,1, 7,14, 0, 5,35.00,40.00,Monday
11,138009.225
21,138009.225
232,0.0
639,0.0
2,1, 7,14, 0, 5,40.00,45.00,Monday
11,138009.225
21,138009.225
232,0.0
639,0.0
2,1, 7,14, 0, 5,45.00,50.00,Monday
11,138009.225
21,138009.225
232,0.0
639,0.0
2,1, 7,14, 0, 5,50.00,55.00,Monday
11,138009.225
21,138009.225
232,0.0
639,0.0
2,1, 7,14, 0, 5,55.00,60.00,Monday
11,138009.225
21,138009.225
232,0.0
639,0.0
2,1, 7,14, 0, 6, 0.00, 5.00,Monday
11,138009.225
21,138009.225
232,0.0
639,0.0
2,1, 7,14, 0, 6, 5.00,10.00,Monday
11,138009.225
21,138009.225
232,0.0
639,0.0
2,1, 7,14, 0, 6,10.00,15.00,Monday
11,138009.225
21,138009.225
232,0.0
639,0.0
2,1, 7,14, 0, 6,15.00,20.00,Monday
11,138009.225
21,138009.225
232,0.0
639,0.0
2,1, 7,14, 0, 6,20.00,25.00,Monday
11,138009.225
21,138009.225
232,0.0
639,0.0
2,1, 7,14, 0, 6,25.00,30.00,Monday
11,138009.225
21,138009.225
232,0.0
639,0.0
2,1, 7,14, 0, 6,30.00,35.00,Monday
11,138009.225
21,138009.225
232,0.0
639,0.0
2,1, 7,14, 0, 6,35.00,40.00,Monday
11,138009.225
21,138009.225
232,0.0
639,0.0
2,1, 7,14, 0, 6,40.00,45.00,Monday
11,138009.225
21,138009.225
232,0.0
639,0.0
2,1, 7,14, 0, 6,45.00,50.00,Monday
11,138009.225
21,138009.225
232,0.0
639,0.0
2,1, 7,14, 0, 6,50.00,55.00,Monday
11,138009.225
21,138009.225
232,0.0
639,0.0
2,1, 7,14, 0, 6,55.00,60.00,Monday
11,138009.225
21,138009.225
232,0.0
639,0.0
2,1, 7,14, 0, 7, 0.00, 5.00,Monday
11,138009.225
21,138009.225
232,0.0
639,0.0
2,1, 7,14, 0, 7, 5.00,10.00,Monday
11,138009.225
21,138009.225
232,0.0
639,0.0
2,1, 7,14, 0, 7,10.00,15.00,Monday
11,138009.225
21,138009.225
232,0.0
639,0.0
2,1, 7,14, 0, 7,15.00,20.00,Monday
11,138009.225
21,138009.225
232,0.0
639,0.0
2,1, 7,14, 0, 7,20.00,25.00,Monday
11,138009.225
21,138009.225
232,0.0
639,0.0
2,1, 7,14, 0, 7,25.00,30.00,Monday
11,138009.225
21,138009.225
232,0.0
639,0.0
2,1, 7,14, 0, 7,30.00,35.00,Monday
11,138009.225
21,138009.225
232,0.0
639,0.0
2,1, 7,14, 0, 7,35.00,40.00,Monday
11,138009.225
21,138009.225
232,0.0
639,0.0
2,1, 7,14, 0, 7,40.00,45.00,Monday
11,138009.225
21,138009.225
232,0.0
639,0.0
2,1, 7,14, 0, 7,45.00,50.00,Monday
11,138009.225
21,138009.225
232,0.0
639,0.0
2,1, 7,14, 0, 7,50.00,55.00,Monday
11,138009.225
21,138009.225
232,0.0
639,0.0
2,1, 7,14, 0, 7,55.00,60.00,Monday
11,138009.225
21,138009.225
232,0.0
639,0.0
2,1, 7,14, 0, 8, 0.00, 5.00,Monday
11,138009.225
21,138009.225
232,0.0
639,0.0
2,1, 7,14, 0, 8, 5.00,10.00,Monday
11,138009.225
21,138009.225
232,0.0
639,0.0
2,1, 7,14, 0, 8,10.00,15.00,Monday
11,138009.225
21,138009.225
232,0.0
639,0.0
2,1, 7,14, 0, 8,15.00,20.00,Monday
11,138009.225
21,138009.225
232,0.0
639,0.0
2,1, 7,14, 0, 8,20.00,25.00,Monday
11,138009.225
21,138009.225
232,0.0
639,0.0
2,1, 7,14, 0, 8,25.00,30.00,Monday
11,138009.225
21,138009.225
232,0.0
639,0.0
2,1, 7,14, 0, 8,30.00,35.00,Monday
11,138009.225
21,138009.225
232,0.0
639,0.0
2,1, 7,14, 0, 8,35.00,40.00,Monday
11,138009.225
21,138009.225
232,0.0
639,0.0
2,1, 7,14, 0, 8,40.00,45.00,Monday
11,138009.225
21,138009.225
232,0.0
639,0.0
2,1, 7,14, 0, 8,45.00,50.00,Monday
11,138009.225
21,138009.225
232,0.0
639,0.0
2,1, 7,14, 0, 8,50.00,55.00,Monday
11,138009.225
21,138009.225
232,0.0
639,0.0
2,1, 7,14, 0, 8,55.00,60.00,Monday
11,138009.225
21,138009.225
232,0.0
639,0.0
2,1, 7,14, 0, 9, 0.00, 5.00,Monday
11,2544166.05
21,2544166.05
232,0.0
639,0.0
2,1, 7,14, 0, 9, 5.00,10.00,Monday
11,2544166.05
21,2544166.05
232,0.0
639,0.0
2,1, 7,14, 0, 9,10.00,15.00,Monday
11,2544166.05
21,2544166.05
232,0.0
639,0.0
2,1, 7,14, 0, 9,15.00,20.00,Monday
11,2544166.05
21,2544166.05
232,0.0
639,0.0
2,1, 7,14, 0, 9,20.00,25.00,Monday
11,2544166.05
21,2544166.05
232,0.0
639,0.0
2,1, 7,14, 0, 9,25.00,30.00,Monday
11,2544166.05
21,2544166.05
232,0.0
639,0.0
2,1, 7,14, 0, 9,30.00,35.00,Monday
11,2544166.05
21,2544166.05
232,0.0
639,0.0
2,1, 7,14, 0, 9,35.00,40.00,Monday
11,2544166.05
21,2544166.05
232,0.0
639,0.0
2,1, 7,14, 0, 9,40.00,45.00,Monday
11,2544166.05
21,2544166.05
232,0.0
639,0.0
2,1, 7,14, 0, 9,45.00,50.00,Monday
11,2544166.05
21,2544166.05
232,0.0
639,0.0
2,1, 7,14, 0, 9,50.00,55.00,Monday
11,2544166.05
21,2544166.05
232,0.0
639,0.0
2,1, 7,14, 0, 9,55.00,60.00,Monday
11,2544166.05
21,2544166.05
232,0.0
639,0.0
2,1, 7,14, 0,10, 0.00, 5.00,Monday
11,3402175.275
21,3402175.275
232,0.0
639,0.0
2,1, 7,14, 0,10, 5.00,10.00,Monday
11,3402175.275
21,3402175.275
232,0.0
639,0.0
2,1, 7,14, 0,10,10.00,15.00,Monday
11,3402175.275
21,3402175.275
232,0.0
639,0.0
2,1, 7,14, 0,10,15.00,20.00,Monday
11,3402175.275
21,3402175.275
232,0.0
639,0.0
2,1, 7,14, 0,10,20.00,25.00,Monday
11,3402175.275
21,3402175.275
232,0.0
639,0.0
2,1, 7,14, 0,10,25.00,30.00,Monday
11,3402175.275
21,3402175.275
232,0.0
639,0.0
2,1, 7,14, 0,10,30.00,35.00,Monday
11,3402175.275
21,3402175.275
232,0.0
639,0.0
2,1, 7,14, 0,10,35.00,40.00,Monday
11,3402175.275
21,3402175.275
232,0.0
639,0.0
2,1, 7,14, 0,10,40.00,45.00,Monday
11,3402175.275
21,3402175.275
232,0.0
639,0.0
2,1, 7,14, 0,10,45.00,50.00,Monday
11,3402175.275
21,3402175.275
232,0.0
639,0.0
2,1, 7,14, 0,10,50.00,55.00,Monday
11,3402175.275
21,3402175.275
232,0.0
639,0.0
2,1, 7,14, 0,10,55.00,60.00,Monday
11,3402175.275
21,3402175.275
232,0.0
639,0.0
2,1, 7,14, 0,11, 0.00, 5.00,Monday
11,3510184.5
21,3510184.5
232,0.0
639,0.0
2,1, 7,14, 0,11, 5.00,10.00,Monday
11,3510184.5
21,3510184.5
232,0.0
639,0.0
2,1, 7,14, 0,11,10.00,15.00,Monday
11,3510184.5
21,3510184.5
232,0.0
639,0.0
2,1, 7,14, 0,11,15.00,20.00,Monday
11,3510184.5
21,3510184.5
232,0.0
639,0.0
2,1, 7,14, 0,11,20.00,25.00,Monday
11,3510184.5
21,3510184.5
232,0.0
639,0.0
2,1, 7,14, 0,11,25.00,30.00,Monday
11,3510184.5
21,3510184.5
232,0.0
639,0.0
2,1, 7,14, 0,11,30.00,35.00,Monday
11,3510184.5
21,3510184.5
232,0.0
639,0.0
2,1, 7,14, 0,11,35.00,40.00,Monday
11,3510184.5
21,3510184.5
232,0.0
639,0.0
2,1, 7,14, 0,11,40.00,45.00,Monday
11,3510184.5
21,3510184.5
232,0.0
639,0.0
2,1, 7,14, 0,11,45.00,50.00,Monday
11,3510184.5
21,3510184.5
232,0.0
639,0.0
2,1, 7,14, 0,11,50.00,55.00,Monday
11,3510184.5
21,3510184.5
232,0.0
639,0.0
2,1, 7,14, 0,11,55.00,60.00,Monday
11,3510184.5
21,3510184.5
232,0.0
639,0.0
2,1, 7,14, 0,12, 0.00, 5.00,Monday
11,3402175.275
21,3402175.275
232,0.0
639,0.0
2,1, 7,14, 0,12, 5.00,10.00,Monday
11,3402175.275
21,3402175.275
232,0.0
639,0.0
2,1, 7,14, 0,12,10.00,15.00,Monday
11,3402175.275
21,3402175.275
232,0.0
639,0.0
2,1, 7,14, 0,12,15.00,20.00,Monday
11,3402175.275
21,3402175.275
232,0.0
639,0.0
2,1, 7,14, 0,12,20.00,25.00,Monday
11,3402175.275
21,3402175.275
232,0.0
639,0.0
2,1, 7,14, 0,12,25.00,30.00,Monday
11,3402175.275
21,3402175.275
232,0.0
639,0.0
2,1, 7,14, 0,12,30.00,35.00,Monday
11,3402175.275
21,3402175.275
232,0.0
639,0.0
2,1, 7,14, 0,12,35.00,40.00,Monday
11,3402175.275
21,3402175.275
232,0.0
639,0.0
2,1, 7,14, 0,12,40.00,45.00,Monday
11,3402175.275
21,3402175.275
232,0.0
639,0.0
2,1, 7,14, 0,12,45.00,50.00,Monday
11,3402175.275
21,3402175.275
232,0.0
639,0.0
2,1, 7,14, 0,12,50.00,55.00,Monday
11,3402175.275
21,3402175.275
232,0.0
639,0.0
2,1, 7,14, 0,12,55.00,60.00,Monday
11,3402175.275
21,3402175.275
232,0.0
639,0.0
2,1, 7,14, 0,13, 0.00, 5.00,Monday
11,3078147.6
21,3078147.6
232,0.0
639,0.0
2,1, 7,14, 0,13, 5.00,10.00,Monday
11,3078147.6
21,3078147.6
232,0.0
639,0.0
2,1, 7,14, 0,13,10.00,15.00,Monday
11,3078147.6
21,3078147.6
232,0.0
639,0.0
2,1, 7,14, 0,13,15.00,20.00,Monday
11,3078147.6
21,3078147.6
232,0.0
639,0.0
2,1, 7,14, 0,13,20.00,25.00,Monday
11,3078147.6
21,3078147.6
232,0.0
639,0.0
2,1, 7,14, 0,13,25.00,30.00,Monday
11,3078147.6
21,3078147.6
232,0.0
639,0.0
2,1, 7,14, 0,13,30.00,35.00,Monday
11,3078147.6
21,3078147.6
232,0.0
639,0.0
2,1, 7,14, 0,13,35.00,40.00,Monday
11,3078147.6
21,3078147.6
232,0.0
639,0.0
2,1, 7,14, 0,13,40.00,45.00,Monday
11,3078147.6
21,3078147.6
232,0.0
639,0.0
2,1, 7,14, 0,13,45.00,50.00,Monday
11,3078147.6
21,3078147.6
232,0.0
639,0.0
2,1, 7,14, 0,13,50.00,55.00,Monday
11,3078147.6
21,3078147.6
232,0.0
639,0.0
2,1, 7,14, 0,13,55.00,60.00,Monday
11,3078147.6
21,3078147.6
232,0.0
639,0.0
2,1, 7,14, 0,14, 0.00, 5.00,Monday
11,3294166.05
21,3294166.05
232,0.0
639,0.0
2,1, 7,14, 0,14, 5.00,10.00,Monday
11,3294166.05
21,3294166.05
232,0.0
639,0.0
2,1, 7,14, 0,14,10.00,15.00,Monday
11,3294166.05
21,3294166.05
232,0.0
639,0.0
2,1, 7,14, 0,14,15.00,20.00,Monday
11,3294166.05
21,3294166.05
232,0.0
639,0.0
2,1, 7,14, 0,14,20.00,25.00,Monday
11,3294166.05
21,3294166.05
232,0.0
639,0.0
2,1, 7,14, 0,14,25.00,30.00,Monday
11,3294166.05
21,3294166.05
232,0.0
639,0.0
2,1, 7,14, 0,14,30.00,35.00,Monday
11,3294166.05
21,3294166.05
232,0.0
639,0.0
2,1, 7,14, 0,14,35.00,40.00,Monday
11,3294166.05
21,3294166.05
232,0.0
639,0.0
2,1, 7,14, 0,14,40.00,45.00,Monday
11,3294166.05
21,3294166.05
232,0.0
639,0.0
2,1, 7,14, 0,14,45.00,50.00,Monday
11,3294166.05
21,3294166.05
232,0.0
639,0.0
2,1, 7,14, 0,14,50.00,55.00,Monday
11,3294166.05
21,3294166.05
232,0.0
639,0.0
2,1, 7,14, 0,14,55.00,60.00,Monday
11,3294166.05
21,3294166.05
232,0.0
639,0.0
2,1, 7,14, 0,15, 0.00, 5.00,Monday
11,3360184.5
21,3360184.5
232,0.0
639,0.0
2,1, 7,14, 0,15, 5.00,10.00,Monday
11,3360184.5
21,3360184.5
232,0.0
639,0.0
2,1, 7,14, 0,15,10.00,15.00,Monday
11,3360184.5
21,3360184.5
232,0.0
639,0.0
2,1, 7,14, 0,15,15.00,20.00,Monday
11,3360184.5
21,3360184.5
232,0.0
639,0.0
2,1, 7,14, 0,15,20.00,25.00,Monday
11,3360184.5
21,3360184.5
232,0.0
639,0.0
2,1, 7,14, 0,15,25.00,30.00,Monday
11,3360184.5
21,3360184.5
232,0.0
639,0.0
2,1, 7,14, 0,15,30.00,35.00,Monday
11,3360184.5
21,3360184.5
232,0.0
639,0.0
2,1, 7,14, 0,15,35.00,40.00,Monday
11,3360184.5
21,3360184.5
232,0.0
639,0.0
2,1, 7,14, 0,15,40.00,45.00,Monday
11,3360184.5
21,3360184.5
232,0.0
639,0.0
2,1, 7,14, 0,15,45.00,50.00,Monday
11,3360184.5
21,3360184.5
232,0.0
639,0.0
2,1, 7,14, 0,15,50.00,55.00,Monday
11,3360184.5
21,3360184.5
232,0.0
639,0.0
2,1, 7,14, 0,15,55.00,60.00,Monday
11,3360184.5
21,3360184.5
232,0.0
639,0.0
2,1, 7,14, 0,16, 0.00, 5.00,Monday
11,3210184.5
21,3210184.5
232,0.0
639,0.0
2,1, 7,14, 0,16, 5.00,10.00,Monday
11,3210184.5
21,3210184.5
232,0.0
639,0.0
2,1, 7,14, 0,16,10.00,15.00,Monday
11,3210184.5
21,3210184.5
232,0.0
639,0.0
2,1, 7,14, 0,16,15.00,20.00,Monday
11,3210184.5
21,3210184.5
232,0.0
639,0.0
2,1, 7,14, 0,16,20.00,25.00,Monday
11,3210184.5
21,3210184.5
232,0.0
639,0.0
2,1, 7,14, 0,16,25.00,30.00,Monday
11,3210184.5
21,3210184.5
232,0.0
639,0.0
2,1, 7,14, 0,16,30.00,35.00,Monday
11,3210184.5
21,3210184.5
232,0.0
639,0.0
2,1, 7,14, 0,16,35.00,40.00,Monday
11,3210184.5
21,3210184.5
232,0.0
639,0.0
2,1, 7,14, 0,16,40.00,45.00,Monday
11,3210184.5
21,3210184.5
232,0.0
639,0.0
2,1, 7,14, 0,16,45.00,50.00,Monday
11,3210184.5
21,3210184.5
232,0.0
639,0.0
2,1, 7,14, 0,16,50.00,55.00,Monday
11,3210184.5
21,3210184.5
232,0.0
639,0.0
2,1, 7,14, 0,16,55.00,60.00,Monday
11,3210184.5
21,3210184.5
232,0.0
639,0.0
2,1, 7,14, 0,17, 0.00, 5.00,Monday
11,2910184.5
21,2910184.5
232,0.0
639,0.0
2,1, 7,14, 0,17, 5.00,10.00,Monday
11,2910184.5
21,2910184.5
232,0.0
639,0.0
2,1, 7,14, 0,17,10.00,15.00,Monday
11,2910184.5
21,2910184.5
232,0.0
639,0.0
2,1, 7,14, 0,17,15.00,20.00,Monday
11,2910184.5
21,2910184.5
232,0.0
639,0.0
2,1, 7,14, 0,17,20.00,25.00,Monday
11,2910184.5
21,2910184.5
232,0.0
639,0.0
2,1, 7,14, 0,17,25.00,30.00,Monday
11,2910184.5
21,2910184.5
232,0.0
639,0.0
2,1, 7,14, 0,17,30.00,35.00,Monday
11,2910184.5
21,2910184.5
232,0.0
639,0.0
2,1, 7,14, 0,17,35.00,40.00,Monday
11,2910184.5
21,2910184.5
232,0.0
639,0.0
2,1, 7,14, 0,17,40.00,45.00,Monday
11,2910184.5
21,2910184.5
232,0.0
639,0.0
2,1, 7,14, 0,17,45.00,50.00,Monday
11,2910184.5
21,2910184.5
232,0.0
639,0.0
2,1, 7,14, 0,17,50.00,55.00,Monday
11,2910184.5
21,2910184.5
232,0.0
639,0.0
2,1, 7,14, 0,17,55.00,60.00,Monday
11,2910184.5
21,2910184.5
232,0.0
639,0.0
2,1, 7,14, 0,18, 0.00, 5.00,Monday
11,2910184.5
21,2910184.5
232,0.0
639,0.0
2,1, 7,14, 0,18, 5.00,10.00,Monday
11,2910184.5
21,2910184.5
232,0.0
639,0.0
2,1, 7,14, 0,18,10.00,15.00,Monday
11,2910184.5
21,2910184.5
232,0.0
639,0.0
2,1, 7,14, 0,18,15.00,20.00,Monday
11,2910184.5
21,2910184.5
232,0.0
639,0.0
2,1, 7,14, 0,18,20.00,25.00,Monday
11,2910184.5
21,2910184.5
232,0.0
639,0.0
2,1, 7,14, 0,18,25.00,30.00,Monday
11,2910184.5
21,2910184.5
232,0.0
639,0.0
2,1, 7,14, 0,18,30.00,35.00,Monday
11,2910184.5
21,2910184.5
232,0.0
639,0.0
2,1, 7,14, 0,18,35.00,40.00,Monday
11,2910184.5
21,2910184.5
232,0.0
639,0.0
2,1, 7,14, 0,18,40.00,45.00,Monday
11,2910184.5
21,2910184.5
232,0.0
639,0.0
2,1, 7,14, 0,18,45.00,50.00,Monday
11,2910184.5
21,2910184.5
232,0.0
639,0.0
2,1, 7,14, 0,18,50.00,55.00,Monday
11,2910184.5
21,2910184.5
232,0.0
639,0.0
2,1, 7,14, 0,18,55.00,60.00,Monday
11,2910184.5
21,2910184.5
232,0.0
639,0.0
2,1, 7,14, 0,19, 0.00, 5.00,Monday
11,1746110.7
21,1746110.7
232,0.0
639,0.0
2,1, 7,14, 0,19, 5.00,10.00,Monday
11,1746110.7
21,1746110.7
232,0.0
639,0.0
2,1, 7,14, 0,19,10.00,15.00,Monday
11,1746110.7
21,1746110.7
232,0.0
639,0.0
2,1, 7,14, 0,19,15.00,20.00,Monday
11,1746110.7
21,1746110.7
232,0.0
639,0.0
2,1, 7,14, 0,19,20.00,25.00,Monday
11,1746110.7
21,1746110.7
232,0.0
639,0.0
2,1, 7,14, 0,19,25.00,30.00,Monday
11,1746110.7
21,1746110.7
232,0.0
639,0.0
2,1, 7,14, 0,19,30.00,35.00,Monday
11,1746110.7
21,1746110.7
232,0.0
639,0.0
2,1, 7,14, 0,19,35.00,40.00,Monday
11,1746110.7
21,1746110.7
232,0.0
639,0.0
2,1, 7,14, 0,19,40.00,45.00,Monday
11,1746110.7
21,1746110.7
232,0.0
639,0.0
2,1, 7,14, 0,19,45.00,50.00,Monday
11,1746110.7
21,1746110.7
232,0.0
639,0.0
2,1, 7,14, 0,19,50.00,55.00,Monday
11,1746110.7
21,1746110.7
232,0.0
639,0.0
2,1, 7,14, 0,19,55.00,60.00,Monday
11,1746110.7
21,1746110.7
232,0.0
639,0.0
2,1, 7,14, 0,20, 0.00, 5.00,Monday
11,882036.9
21,882036.9
232,0.0
639,0.0
2,1, 7,14, 0,20, 5.00,10.00,Monday
11,882036.9
21,882036.9
232,0.0
639,0.0
2,1, 7,14, 0,20,10.00,15.00,Monday
11,882036.9
21,882036.9
232,0.0
639,0.0
2,1, 7,14, 0,20,15.00,20.00,Monday
11,882036.9
21,882036.9
232,0.0
639,0.0
2,1, 7,14, 0,20,20.00,25.00,Monday
11,882036.9
21,882036.9
232,0.0
639,0.0
2,1, 7,14, 0,20,25.00,30.00,Monday
11,882036.9
21,882036.9
232,0.0
639,0.0
2,1, 7,14, 0,20,30.00,35.00,Monday
11,882036.9
21,882036.9
232,0.0
639,0.0
2,1, 7,14, 0,20,35.00,40.00,Monday
11,882036.9
21,882036.9
232,0.0
639,0.0
2,1, 7,14, 0,20,40.00,45.00,Monday
11,882036.9
21,882036.9
232,0.0
639,0.0
2,1, 7,14, 0,20,45.00,50.00,Monday
11,882036.9
21,882036.9
232,0.0
639,0.0
2,1, 7,14, 0,20,50.00,55.00,Monday
11,882036.9
21,882036.9
232,0.0
639,0.0
2,1, 7,14, 0,20,55.00,60.00,Monday
11,882036.9
21,882036.9
232,0.0
639,0.0
2,1, 7,14, 0,21, 0.00, 5.00,Monday
11,462036.9
21,462036.9
232,0.0
639,0.0
2,1, 7,14, 0,21, 5.00,10.00,Monday
11,462036.9
21,462036.9
232,0.0
639,0.0
2,1, 7,14, 0,21,10.00,15.00,Monday
11,462036.9
21,462036.9
232,0.0
639,0.0
2,1, 7,14, 0,21,15.00,20.00,Monday
11,462036.9
21,462036.9
232,0.0
639,0.0
2,1, 7,14, 0,21,20.00,25.00,Monday
11,462036.9
21,462036.9
232,0.0
639,0.0
2,1, 7,14, 0,21,25.00,30.00,Monday
11,462036.9
21,462036.9
232,0.0
639,0.0
2,1, 7,14, 0,21,30.00,35.00,Monday
11,462036.9
21,462036.9
232,0.0
639,0.0
2,1, 7,14, 0,21,35.00,40.00,Monday
11,462036.9
21,462036.9
232,0.0
639,0.0
2,1, 7,14, 0,21,40.00,45.00,Monday
11,462036.9
21,462036.9
232,0.0
639,0.0
2,1, 7,14, 0,21,45.00,50.00,Monday
11,462036.9
21,462036.9
232,0.0
639,0.0
2,1, 7,14, 0,21,50.00,55.00,Monday
11,462036.9
21,462036.9
232,0.0
639,0.0
2,1, 7,14, 0,21,55.00,60.00,Monday
11,462036.9
21,462036.9
232,0.0
639,0.0
2,1, 7,14, 0,22, 0.00, 5.00,Monday
11,138009.225
21,138009.225
232,0.0
639,0.0
2,1, 7,14, 0,22, 5.00,10.00,Monday
11,138009.225
21,138009.225
232,0.0
639,0.0
2,1, 7,14, 0,22,10.00,15.00,Monday
11,138009.225
21,138009.225
232,0.0
639,0.0
2,1, 7,14, 0,22,15.00,20.00,Monday
11,138009.225
21,138009.225
232,0.0
639,0.0
2,1, 7,14, 0,22,20.00,25.00,Monday
11,138009.225
21,138009.225
232,0.0
639,0.0
2,1, 7,14, 0,22,25.00,30.00,Monday
11,138009.225
21,138009.225
232,0.0
639,0.0
2,1, 7,14, 0,22,30.00,35.00,Monday
11,138009.225
21,138009.225
232,0.0
639,0.0
2,1, 7,14, 0,22,35.00,40.00,Monday
11,138009.225
21,138009.225
232,0.0
639,0.0
2,1, 7,14, 0,22,40.00,45.00,Monday
11,138009.225
21,138009.225
232,0.0
639,0.0
2,1, 7,14, 0,22,45.00,50.00,Monday
11,138009.225
21,138009.225
232,0.0
639,0.0
2,1, 7,14, 0,22,50.00,55.00,Monday
11,138009.225
21,138009.225
232,0.0
639,0.0
2,1, 7,14, 0,22,55.00,60.00,Monday
11,138009.225
21,138009.225
232,0.0
639,0.0
2,1, 7,14, 0,23, 0.00, 5.00,Monday
11,138009.225
21,138009.225
232,0.0
639,0.0
2,1, 7,14, 0,23, 5.00,10.00,Monday
11,138009.225
21,138009.225
232,0.0
639,0.0
2,1, 7,14, 0,23,10.00,15.00,Monday
11,138009.225
21,138009.225
232,0.0
639,0.0
2,1, 7,14, 0,23,15.00,20.00,Monday
11,138009.225
21,138009.225
232,0.0
639,0.0
2,1, 7,14, 0,23,20.00,25.00,Monday
11,138009.225
21,138009.225
232,0.0
639,0.0
2,1, 7,14, 0,23,25.00,30.00,Monday
11,138009.225
21,138009.225
232,0.0
639,0.0
2,1, 7,14, 0,23,30.00,35.00,Monday
11,138009.225
21,138009.225
232,0.0
639,0.0
2,1, 7,14, 0,23,35.00,40.00,Monday
11,138009.225
21,138009.225
232,0.0
639,0.0
2,1, 7,14, 0,23,40.00,45.00,Monday
11,138009.225
21,138009.225
232,0.0
639,0.0
2,1, 7,14, 0,23,45.00,50.00,Monday
11,138009.225
21,138009.225
232,0.0
639,0.0
2,1, 7,14, 0,23,50.00,55.00,Monday
11,138009.225
21,138009.225
232,0.0
639,0.0
2,1, 7,14, 0,23,55.00,60.00,Monday
11,138009.225
21,138009.225
232,0.0
639,0.0
2,1, 7,14, 0,24, 0.00, 5.00,Monday
11,138009.225
21,138009.225
232,0.0
639,0.0
2,1, 7,14, 0,24, 5.00,10.00,Monday
11,138009.225
21,138009.225
232,0.0
639,0.0
2,1, 7,14, 0,24,10.00,15.00,Monday
11,138009.225
21,138009.225
232,0.0
639,0.0
2,1, 7,14, 0,24,15.00,20.00,Monday
11,138009.225
21,138009.225
232,0.0
639,0.0
2,1, 7,14, 0,24,20.00,25.00,Monday
11,138009.225
21,138009.225
232,0.0
639,0.0
2,1, 7,14, 0,24,25.00,30.00,Monday
11,138009.225
21,138009.225
232,0.0
639,0.0
2,1, 7,14, 0,24,30.00,35.00,Monday
11,138009.225
21,138009.225
232,0.0
639,0.0
2,1, 7,14, 0,24,35.00,40.00,Monday
11,138009.225
21,138009.225
232,0.0
639,0.0
2,1, 7,14, 0,24,40.00,45.00,Monday
11,138009.225
21,138009.225
232,0.0
639,0.0
2,1, 7,14, 0,24,45.00,50.00,Monday
11,138009.225
21,138009.225
232,0.0
639,0.0
2,1, 7,14, 0,24,50.00,55.00,Monday
11,138009.225
21,138009.225
232,0.0
639,0.0
2,1, 7,14, 0,24,55.00,60.00,Monday
11,138009.225
21,138009.225
232,0.0
639,0.0
End of Data
 Number of Records Written=        1152
